! Touchstone file exported from HFSS 2024.1.0
!        File:           E:/Codex_Project/IOTJ_V2/0515/0515_chest/hfss/torso_main/projects/hbc_torso_main.aedt
!        Generated:      01:11:41 AM May 16, 2026
!        Design:         t_imp10_rest
!        Project:        hbc_torso_main
!        Setup:          Setup1
!        Solution:       SP1p0
!
# GHz S MA R 50.000000
! Terminal data exported
! Port[1] = HubPort
! Port[2] = NodePort
0.001                          0.613778930896809 -0.322848763016029 0.000308356593639202 0.570520993492289 0.000308356593639202 0.570520993492289 0.371850672031774 -0.437351017216971 
