! Touchstone file exported from HFSS 2024.1.0
!        File:           hbc_torso_main.aedt
!        Generated:      01:11:41 AM May 16, 2026
!        Design:         t_imp10_rest
!        Project:        hbc_torso_main
!        Setup:          Setup1
!        Solution:       SP40p0
!
# GHz S MA R 50.000000
! Terminal data exported
! Port[1] = HubPort
! Port[2] = NodePort
0.04                           0.613215066591154 -12.8672341726869 0.000343269867439839 20.9275650567646 0.00034326986743984 20.9275650567645 0.378375284836612 -17.3277722309536 
