! Touchstone file exported from HFSS 2024.1.0
!        File:           E:/Codex_Project/IOTJ_V2/0515/0515_chest/hfss/torso_main/projects/hbc_torso_main.aedt
!        Generated:      01:14:23 AM May 16, 2026
!        Design:         t_imp30_stress
!        Project:        hbc_torso_main
!        Setup:          Setup1
!        Solution:       SP21p0
!
# GHz S MA R 50.000000
! Terminal data exported
! Port[1] = HubPort
! Port[2] = NodePort
0.021                          0.612099414868134 -6.81142617043925 0.000117796649549767 19.8290753902231 0.000117796649549767 19.8290753902231 0.698055038554492 -6.49782665463973 
