! Touchstone file exported from HFSS 2024.1.0
!        File:           hbc_torso_main.aedt
!        Generated:      01:14:23 AM May 16, 2026
!        Design:         t_imp30_stress
!        Project:        hbc_torso_main
!        Setup:          Setup1
!        Solution:       SP40p0
!
# GHz S MA R 50.000000
! Terminal data exported
! Port[1] = HubPort
! Port[2] = NodePort
0.04                           0.611822321709939 -12.9405863680484 0.00014156456095693 33.5163747840657 0.00014156456095693 33.5163747840657 0.696159189468551 -12.2594543255897 
