! Touchstone file exported from HFSS 2024.1.0
!        File:           E:/Codex_Project/IOTJ_V2/0515/0515_chest/hfss/torso_main/projects/hbc_torso_main.aedt
!        Generated:      01:14:23 AM May 16, 2026
!        Design:         t_imp30_stress
!        Project:        hbc_torso_main
!        Setup:          Setup1
!        Solution:       SP1p0
!
# GHz S MA R 50.000000
! Terminal data exported
! Port[1] = HubPort
! Port[2] = NodePort
0.001                          0.612282373491867 -0.324728697944804 0.000108286629703821 0.996381623742525 0.000108286629703821 0.996381623742525 0.6989390096622  -0.310650855747995 
