! Touchstone file exported from HFSS 2024.1.0
!        File:           E:/Codex_Project/IOTJ_V2/0515/0515_chest/hfss/torso_main/projects/hbc_torso_main.aedt
!        Generated:      01:11:41 AM May 16, 2026
!        Design:         t_imp10_rest
!        Project:        hbc_torso_main
!        Setup:          Setup1
!        Solution:       SP10p0
!
# GHz S MA R 50.000000
! Terminal data exported
! Port[1] = HubPort
! Port[2] = NodePort
0.01                           0.613727289312142 -3.22790924114343 0.000310716974671592 5.6671898340163  0.000310716974671593 5.6671898340163  0.372261149803174 -4.37161436756086 
