! Touchstone file exported from HFSS 2024.1.0
!        File:           hbc_torso_main.aedt
!        Generated:      01:08:06 AM May 16, 2026
!        Design:         t_surf_rest
!        Project:        hbc_torso_main
!        Setup:          Setup1
!        Solution:       SP40p0
!
# GHz S MA R 50.000000
! Terminal data exported
! Port[1] = HubPort
! Port[2] = NodePort
0.04                           0.61124935424185 -12.9694330887131 0.000301730346236015 11.164197173992  0.000301730346236015 11.164197173992  0.723500415912416 -7.87949453668636 
