! Touchstone file exported from HFSS 2024.1.0
!        File:           E:/Codex_Project/IOTJ_V2/0515/0515_chest/hfss/torso_main/projects/hbc_torso_main.aedt
!        Generated:      01:08:06 AM May 16, 2026
!        Design:         t_surf_rest
!        Project:        hbc_torso_main
!        Setup:          Setup1
!        Solution:       SP10p0
!
# GHz S MA R 50.000000
! Terminal data exported
! Port[1] = HubPort
! Port[2] = NodePort
0.01                           0.611659730729948 -3.25383300831894 0.000324809720787057 1.53379807222159 0.000324809720787057 1.53379807222159 0.723426816796187 -1.97484571301414 
